This is a LAMMPS datafile 

16247 atoms
9680 bonds
5798 angles
1259 dihedrals
0 impropers 

11 atom types
6 bond types
6 angle types
1 dihedral types 

0 49.9482 xlo xhi
0 51.9076 ylo yhi
1.45 88.1 zlo zhi
 
Masses 

1 12.0
2 12.0
3 196.96657
4 1.0
5 16.0
6 32.065
7 14.0
8 14.0
9 14.0
10 14.0
11 1.0
 
Atoms 

1 0 1 0.0 21.5002 27.5002 67.3413
2 0 2 0.0 21.469 27.469 50.6787
3 0 2 0.0 18.7938 26.5772 53.2102
4 0 2 0.0 20.5772 24.7938 53.2102
5 0 2 0.0 20.5772 26.5772 51.5226
6 0 2 0.0 21.469 25.6855 52.3663
7 0 2 0.0 22.3608 26.5772 53.2102
8 0 2 0.0 19.6855 27.469 52.3663
9 0 2 0.0 20.5772 28.3608 53.2102
10 0 2 0.0 22.3608 28.3608 51.5226
11 0 2 0.0 17.902 25.6855 55.7417
12 0 2 0.0 19.6855 23.902 55.7417
13 0 2 0.0 19.6855 25.6855 54.054
14 0 2 0.0 18.7938 24.7938 54.8979
15 0 2 0.0 20.5772 26.5772 54.8979
16 0 2 0.0 21.469 23.902 54.054
17 0 2 0.0 21.469 25.6855 55.7417
18 0 2 0.0 22.3608 24.7938 54.8979
19 0 2 0.0 17.902 27.469 54.054
20 0 2 0.0 19.6855 27.469 55.7417
21 0 2 0.0 18.7938 28.3608 54.8979
22 0 2 0.0 21.469 27.469 54.054
23 0 2 0.0 22.3608 28.3608 54.8979
24 0 2 0.0 23.2525 27.469 52.3663
25 0 2 0.0 24.1442 28.3608 53.2102
26 0 2 0.0 23.2525 23.902 55.7417
27 0 2 0.0 23.2525 25.6855 54.054
28 0 2 0.0 24.1442 26.5772 54.8979
29 0 2 0.0 25.036 25.6855 55.7417
30 0 2 0.0 23.2525 27.469 55.7417
31 0 2 0.0 25.036 27.469 54.054
32 0 2 0.0 21.469 29.2525 52.3663
33 0 2 0.0 22.3608 30.1442 53.2102
34 0 2 0.0 17.902 29.2525 55.7417
35 0 2 0.0 19.6855 29.2525 54.054
36 0 2 0.0 20.5772 30.1442 54.8979
37 0 2 0.0 21.469 29.2525 55.7417
38 0 2 0.0 19.6855 31.036 55.7417
39 0 2 0.0 21.469 31.036 54.054
40 0 2 0.0 23.2525 29.2525 54.054
41 0 2 0.0 24.1442 30.1442 54.8979
42 0 2 0.0 25.036 29.2525 55.7417
43 0 2 0.0 23.2525 31.036 55.7417
44 0 2 0.0 15.2268 23.0102 59.961
45 0 2 0.0 17.0102 21.2268 59.961
46 0 2 0.0 17.0102 23.0102 58.2733
47 0 2 0.0 16.1185 22.1185 60.8048
48 0 2 0.0 18.7938 23.0102 56.5856
49 0 2 0.0 22.3608 23.0102 56.5856
50 0 2 0.0 17.902 22.1185 59.1171
51 0 2 0.0 19.6855 22.1185 57.4294
52 0 2 0.0 18.7938 23.0102 59.961
53 0 2 0.0 20.5772 21.2268 59.961
54 0 2 0.0 20.5772 23.0102 58.2733
55 0 2 0.0 21.469 22.1185 59.1171
56 0 2 0.0 22.3608 21.2268 58.2733
57 0 2 0.0 22.3608 23.0102 59.961
58 0 2 0.0 17.902 20.335 60.8048
59 0 2 0.0 19.6855 22.1185 60.8048
60 0 2 0.0 21.469 20.335 60.8048
61 0 2 0.0 23.2525 22.1185 57.4294
62 0 2 0.0 24.1442 21.2268 59.961
63 0 2 0.0 24.1442 23.0102 58.2733
64 0 2 0.0 25.036 22.1185 59.1171
65 0 2 0.0 25.9278 23.0102 59.961
66 0 2 0.0 23.2525 22.1185 60.8048
67 0 2 0.0 25.036 20.335 60.8048
68 0 2 0.0 26.8195 22.1185 60.8048
69 0 2 0.0 17.0102 24.7938 56.5856
70 0 2 0.0 17.0102 28.3608 56.5856
71 0 2 0.0 16.1185 23.902 59.1171
72 0 2 0.0 16.1185 25.6855 57.4294
73 0 2 0.0 15.2268 26.5772 59.961
74 0 2 0.0 17.0102 24.7938 59.961
75 0 2 0.0 17.0102 26.5772 58.2733
76 0 2 0.0 16.1185 27.469 59.1171
77 0 2 0.0 15.2268 28.3608 58.2733
78 0 2 0.0 17.0102 28.3608 59.961
79 0 2 0.0 14.335 23.902 60.8048
80 0 2 0.0 16.1185 25.6855 60.8048
81 0 2 0.0 14.335 27.469 60.8048
82 0 2 0.0 18.7938 26.5772 56.5856
83 0 2 0.0 20.5772 24.7938 56.5856
84 0 2 0.0 22.3608 26.5772 56.5856
85 0 2 0.0 20.5772 28.3608 56.5856
86 0 2 0.0 17.902 23.902 57.4294
87 0 2 0.0 17.902 25.6855 59.1171
88 0 2 0.0 19.6855 23.902 59.1171
89 0 2 0.0 19.6855 25.6855 57.4294
90 0 2 0.0 18.7938 24.7938 58.2733
91 0 2 0.0 18.7938 26.5772 59.961
92 0 2 0.0 20.5772 24.7938 59.961
93 0 2 0.0 20.5772 26.5772 58.2733
94 0 2 0.0 21.469 23.902 57.4294
95 0 2 0.0 21.469 25.6855 59.1171
96 0 2 0.0 22.3608 24.7938 58.2733
97 0 2 0.0 22.3608 26.5772 59.961
98 0 2 0.0 17.902 27.469 57.4294
99 0 2 0.0 19.6855 27.469 59.1171
100 0 2 0.0 18.7938 28.3608 58.2733
101 0 2 0.0 20.5772 28.3608 59.961
102 0 2 0.0 21.469 27.469 57.4294
103 0 2 0.0 22.3608 28.3608 58.2733
104 0 2 0.0 17.902 23.902 60.8048
105 0 2 0.0 19.6855 25.6855 60.8048
106 0 2 0.0 21.469 23.902 60.8048
107 0 2 0.0 17.902 27.469 60.8048
108 0 2 0.0 21.469 27.469 60.8048
109 0 2 0.0 24.1442 24.7938 56.5856
110 0 2 0.0 25.9278 26.5772 56.5856
111 0 2 0.0 24.1442 28.3608 56.5856
112 0 2 0.0 23.2525 23.902 59.1171
113 0 2 0.0 23.2525 25.6855 57.4294
114 0 2 0.0 24.1442 24.7938 59.961
115 0 2 0.0 24.1442 26.5772 58.2733
116 0 2 0.0 25.036 23.902 57.4294
117 0 2 0.0 25.036 25.6855 59.1171
118 0 2 0.0 26.8195 23.902 59.1171
119 0 2 0.0 26.8195 25.6855 57.4294
120 0 2 0.0 25.9278 24.7938 58.2733
121 0 2 0.0 25.9278 26.5772 59.961
122 0 2 0.0 27.7112 24.7938 59.961
123 0 2 0.0 27.7112 26.5772 58.2733
124 0 2 0.0 23.2525 27.469 59.1171
125 0 2 0.0 24.1442 28.3608 59.961
126 0 2 0.0 25.036 27.469 57.4294
127 0 2 0.0 26.8195 27.469 59.1171
128 0 2 0.0 25.9278 28.3608 58.2733
129 0 2 0.0 27.7112 28.3608 59.961
130 0 2 0.0 23.2525 25.6855 60.8048
131 0 2 0.0 25.036 23.902 60.8048
132 0 2 0.0 26.8195 25.6855 60.8048
133 0 2 0.0 25.036 27.469 60.8048
134 0 2 0.0 28.603 23.902 60.8048
135 0 2 0.0 28.603 27.469 60.8048
136 0 2 0.0 16.1185 29.2525 57.4294
137 0 2 0.0 15.2268 30.1442 59.961
138 0 2 0.0 17.0102 30.1442 58.2733
139 0 2 0.0 16.1185 31.036 59.1171
140 0 2 0.0 17.0102 31.9278 59.961
141 0 2 0.0 16.1185 29.2525 60.8048
142 0 2 0.0 14.335 31.036 60.8048
143 0 2 0.0 16.1185 32.8195 60.8048
144 0 2 0.0 18.7938 30.1442 56.5856
145 0 2 0.0 22.3608 30.1442 56.5856
146 0 2 0.0 20.5772 31.9278 56.5856
147 0 2 0.0 17.902 29.2525 59.1171
148 0 2 0.0 19.6855 29.2525 57.4294
149 0 2 0.0 18.7938 30.1442 59.961
150 0 2 0.0 20.5772 30.1442 58.2733
151 0 2 0.0 21.469 29.2525 59.1171
152 0 2 0.0 22.3608 30.1442 59.961
153 0 2 0.0 17.902 31.036 57.4294
154 0 2 0.0 17.902 32.8195 59.1171
155 0 2 0.0 19.6855 31.036 59.1171
156 0 2 0.0 19.6855 32.8195 57.4294
157 0 2 0.0 18.7938 31.9278 58.2733
158 0 2 0.0 18.7938 33.7112 59.961
159 0 2 0.0 20.5772 31.9278 59.961
160 0 2 0.0 20.5772 33.7112 58.2733
161 0 2 0.0 21.469 31.036 57.4294
162 0 2 0.0 21.469 32.8195 59.1171
163 0 2 0.0 22.3608 31.9278 58.2733
164 0 2 0.0 22.3608 33.7112 59.961
165 0 2 0.0 19.6855 29.2525 60.8048
166 0 2 0.0 17.902 31.036 60.8048
167 0 2 0.0 19.6855 32.8195 60.8048
168 0 2 0.0 21.469 31.036 60.8048
169 0 2 0.0 25.9278 30.1442 56.5856
170 0 2 0.0 24.1442 31.9278 56.5856
171 0 2 0.0 23.2525 29.2525 57.4294
172 0 2 0.0 24.1442 30.1442 58.2733
173 0 2 0.0 25.036 29.2525 59.1171
174 0 2 0.0 26.8195 29.2525 57.4294
175 0 2 0.0 25.9278 30.1442 59.961
176 0 2 0.0 23.2525 31.036 59.1171
177 0 2 0.0 23.2525 32.8195 57.4294
178 0 2 0.0 24.1442 31.9278 59.961
179 0 2 0.0 25.036 31.036 57.4294
180 0 2 0.0 25.036 32.8195 59.1171
181 0 2 0.0 26.8195 31.036 59.1171
182 0 2 0.0 25.9278 31.9278 58.2733
183 0 2 0.0 25.9278 33.7112 59.961
184 0 2 0.0 27.7112 31.9278 59.961
185 0 2 0.0 23.2525 29.2525 60.8048
186 0 2 0.0 26.8195 29.2525 60.8048
187 0 2 0.0 23.2525 32.8195 60.8048
188 0 2 0.0 25.036 31.036 60.8048
189 0 2 0.0 26.8195 32.8195 60.8048
190 0 2 0.0 28.603 29.2525 59.1171
191 0 2 0.0 28.603 31.036 60.8048
192 0 2 0.0 17.902 34.603 60.8048
193 0 2 0.0 21.469 34.603 60.8048
194 0 2 0.0 23.2525 34.603 59.1171
195 0 2 0.0 25.036 34.603 60.8048
196 0 2 0.0 14.335 22.1185 62.4925
197 0 2 0.0 16.1185 20.335 62.4925
198 0 2 0.0 15.2268 21.2268 61.6486
199 0 2 0.0 17.0102 23.0102 61.6486
200 0 2 0.0 17.902 18.5515 62.4925
201 0 2 0.0 20.5772 19.4432 61.6486
202 0 2 0.0 21.469 18.5515 62.4925
203 0 2 0.0 17.902 22.1185 62.4925
204 0 2 0.0 19.6855 20.335 62.4925
205 0 2 0.0 18.7938 21.2268 61.6486
206 0 2 0.0 20.5772 23.0102 61.6486
207 0 2 0.0 21.469 22.1185 62.4925
208 0 2 0.0 22.3608 21.2268 61.6486
209 0 2 0.0 24.1442 19.4432 61.6486
210 0 2 0.0 25.036 18.5515 62.4925
211 0 2 0.0 23.2525 20.335 62.4925
212 0 2 0.0 24.1442 23.0102 61.6486
213 0 2 0.0 25.036 22.1185 62.4925
214 0 2 0.0 26.8195 20.335 62.4925
215 0 2 0.0 25.9278 21.2268 61.6486
216 0 2 0.0 27.7112 23.0102 61.6486
217 0 2 0.0 28.603 22.1185 62.4925
218 0 2 0.0 12.5515 23.902 62.4925
219 0 2 0.0 13.4432 26.5772 61.6486
220 0 2 0.0 14.335 25.6855 62.4925
221 0 2 0.0 16.1185 23.902 62.4925
222 0 2 0.0 15.2268 24.7938 61.6486
223 0 2 0.0 17.0102 26.5772 61.6486
224 0 2 0.0 12.5515 27.469 62.4925
225 0 2 0.0 16.1185 27.469 62.4925
226 0 2 0.0 15.2268 28.3608 61.6486
227 0 2 0.0 17.902 25.6855 62.4925
228 0 2 0.0 19.6855 23.902 62.4925
229 0 2 0.0 18.7938 24.7938 61.6486
230 0 2 0.0 20.5772 26.5772 61.6486
231 0 2 0.0 21.469 25.6855 62.4925
232 0 2 0.0 22.3608 24.7938 61.6486
233 0 2 0.0 19.6855 27.469 62.4925
234 0 2 0.0 18.7938 28.3608 61.6486
235 0 2 0.0 22.3608 28.3608 61.6486
236 0 2 0.0 23.2525 23.902 62.4925
237 0 2 0.0 24.1442 26.5772 61.6486
238 0 2 0.0 25.036 25.6855 62.4925
239 0 2 0.0 26.8195 23.902 62.4925
240 0 2 0.0 25.9278 24.7938 61.6486
241 0 2 0.0 27.7112 26.5772 61.6486
242 0 2 0.0 23.2525 27.469 62.4925
243 0 2 0.0 26.8195 27.469 62.4925
244 0 2 0.0 25.9278 28.3608 61.6486
245 0 2 0.0 28.603 25.6855 62.4925
246 0 2 0.0 30.3865 23.902 62.4925
247 0 2 0.0 29.4948 24.7938 61.6486
248 0 2 0.0 30.3865 27.469 62.4925
249 0 2 0.0 29.4948 28.3608 61.6486
250 0 2 0.0 13.4432 30.1442 61.6486
251 0 2 0.0 14.335 29.2525 62.4925
252 0 2 0.0 17.0102 30.1442 61.6486
253 0 2 0.0 12.5515 31.036 62.4925
254 0 2 0.0 14.335 32.8195 62.4925
255 0 2 0.0 16.1185 31.036 62.4925
256 0 2 0.0 15.2268 31.9278 61.6486
257 0 2 0.0 17.0102 33.7112 61.6486
258 0 2 0.0 17.902 29.2525 62.4925
259 0 2 0.0 20.5772 30.1442 61.6486
260 0 2 0.0 21.469 29.2525 62.4925
261 0 2 0.0 17.902 32.8195 62.4925
262 0 2 0.0 19.6855 31.036 62.4925
263 0 2 0.0 18.7938 31.9278 61.6486
264 0 2 0.0 20.5772 33.7112 61.6486
265 0 2 0.0 21.469 32.8195 62.4925
266 0 2 0.0 22.3608 31.9278 61.6486
267 0 2 0.0 24.1442 30.1442 61.6486
268 0 2 0.0 25.036 29.2525 62.4925
269 0 2 0.0 27.7112 30.1442 61.6486
270 0 2 0.0 23.2525 31.036 62.4925
271 0 2 0.0 24.1442 33.7112 61.6486
272 0 2 0.0 25.036 32.8195 62.4925
273 0 2 0.0 26.8195 31.036 62.4925
274 0 2 0.0 25.9278 31.9278 61.6486
275 0 2 0.0 27.7112 33.7112 61.6486
276 0 2 0.0 28.603 29.2525 62.4925
277 0 2 0.0 28.603 32.8195 62.4925
278 0 2 0.0 30.3865 31.036 62.4925
279 0 2 0.0 16.1185 34.603 62.4925
280 0 2 0.0 17.902 36.3865 62.4925
281 0 2 0.0 19.6855 34.603 62.4925
282 0 2 0.0 18.7938 35.4948 61.6486
283 0 2 0.0 21.469 36.3865 62.4925
284 0 2 0.0 22.3608 35.4948 61.6486
285 0 2 0.0 23.2525 34.603 62.4925
286 0 2 0.0 25.036 36.3865 62.4925
287 0 2 0.0 26.8195 34.603 62.4925
288 0 3 0.0 2.4974 1.4419 2.404
289 0 3 0.0 2.4974 4.3256 2.404
290 0 3 0.0 2.4974 7.2094 2.404
291 0 3 0.0 2.4974 10.0932 2.404
292 0 3 0.0 2.4974 12.9769 2.404
293 0 3 0.0 2.4974 15.8607 2.404
294 0 3 0.0 2.4974 18.7444 2.404
295 0 3 0.0 2.4974 21.6282 2.404
296 0 3 0.0 2.4974 24.5119 2.404
297 0 3 0.0 7.4922 1.4419 2.404
298 0 3 0.0 7.4922 4.3256 2.404
299 0 3 0.0 7.4922 7.2094 2.404
300 0 3 0.0 7.4922 10.0932 2.404
301 0 3 0.0 7.4922 12.9769 2.404
302 0 3 0.0 7.4922 15.8607 2.404
303 0 3 0.0 7.4922 18.7444 2.404
304 0 3 0.0 7.4922 21.6282 2.404
305 0 3 0.0 7.4922 24.5119 2.404
306 0 3 0.0 12.487 1.4419 2.404
307 0 3 0.0 12.487 4.3256 2.404
308 0 3 0.0 12.487 7.2094 2.404
309 0 3 0.0 12.487 10.0932 2.404
310 0 3 0.0 12.487 12.9769 2.404
311 0 3 0.0 12.487 15.8607 2.404
312 0 3 0.0 12.487 18.7444 2.404
313 0 3 0.0 12.487 21.6282 2.404
314 0 3 0.0 12.487 24.5119 2.404
315 0 3 0.0 17.4819 1.4419 2.404
316 0 3 0.0 17.4819 4.3256 2.404
317 0 3 0.0 17.4819 7.2094 2.404
318 0 3 0.0 17.4819 10.0932 2.404
319 0 3 0.0 17.4819 12.9769 2.404
320 0 3 0.0 17.4819 15.8607 2.404
321 0 3 0.0 17.4819 18.7444 2.404
322 0 3 0.0 17.4819 21.6282 2.404
323 0 3 0.0 17.4819 24.5119 2.404
324 0 3 0.0 22.4767 1.4419 2.404
325 0 3 0.0 22.4767 4.3256 2.404
326 0 3 0.0 22.4767 7.2094 2.404
327 0 3 0.0 22.4767 10.0932 2.404
328 0 3 0.0 22.4767 12.9769 2.404
329 0 3 0.0 22.4767 15.8607 2.404
330 0 3 0.0 22.4767 18.7444 2.404
331 0 3 0.0 22.4767 21.6282 2.404
332 0 3 0.0 22.4767 24.5119 2.404
333 0 3 0.0 0.0 0.0 2.404
334 0 3 0.0 0.0 2.8838 2.404
335 0 3 0.0 0.0 5.7675 2.404
336 0 3 0.0 0.0 8.6513 2.404
337 0 3 0.0 0.0 11.535 2.404
338 0 3 0.0 0.0 14.4188 2.404
339 0 3 0.0 0.0 17.3026 2.404
340 0 3 0.0 0.0 20.1863 2.404
341 0 3 0.0 0.0 23.0701 2.404
342 0 3 0.0 4.9948 0.0 2.404
343 0 3 0.0 4.9948 2.8838 2.404
344 0 3 0.0 4.9948 5.7675 2.404
345 0 3 0.0 4.9948 8.6513 2.404
346 0 3 0.0 4.9948 11.535 2.404
347 0 3 0.0 4.9948 14.4188 2.404
348 0 3 0.0 4.9948 17.3025 2.404
349 0 3 0.0 4.9948 20.1863 2.404
350 0 3 0.0 4.9948 23.0701 2.404
351 0 3 0.0 9.9896 0.0 2.404
352 0 3 0.0 9.9896 2.8838 2.404
353 0 3 0.0 9.9896 5.7675 2.404
354 0 3 0.0 9.9896 8.6513 2.404
355 0 3 0.0 9.9896 11.535 2.404
356 0 3 0.0 9.9896 14.4188 2.404
357 0 3 0.0 9.9896 17.3025 2.404
358 0 3 0.0 9.9896 20.1863 2.404
359 0 3 0.0 9.9896 23.0701 2.404
360 0 3 0.0 14.9844 0.0 2.404
361 0 3 0.0 14.9844 2.8838 2.404
362 0 3 0.0 14.9844 5.7675 2.404
363 0 3 0.0 14.9844 8.6513 2.404
364 0 3 0.0 14.9844 11.535 2.404
365 0 3 0.0 14.9844 14.4188 2.404
366 0 3 0.0 14.9844 17.3026 2.404
367 0 3 0.0 14.9845 20.1863 2.404
368 0 3 0.0 14.9844 23.0701 2.404
369 0 3 0.0 19.9793 0.0 2.404
370 0 3 0.0 19.9793 2.8838 2.404
371 0 3 0.0 19.9793 5.7675 2.404
372 0 3 0.0 19.9793 8.6513 2.404
373 0 3 0.0 19.9793 11.535 2.404
374 0 3 0.0 19.9793 14.4188 2.404
375 0 3 0.0 19.9793 17.3025 2.404
376 0 3 0.0 19.9793 20.1863 2.404
377 0 3 0.0 19.9793 23.0701 2.404
378 0 3 0.0 27.4715 1.4419 2.404
379 0 3 0.0 27.4715 4.3256 2.404
380 0 3 0.0 27.4715 7.2094 2.404
381 0 3 0.0 27.4715 10.0932 2.404
382 0 3 0.0 27.4715 12.9769 2.404
383 0 3 0.0 27.4715 15.8607 2.404
384 0 3 0.0 27.4715 18.7444 2.404
385 0 3 0.0 27.4715 21.6282 2.404
386 0 3 0.0 27.4715 24.5119 2.404
387 0 3 0.0 32.4663 1.4419 2.404
388 0 3 0.0 32.4663 4.3256 2.404
389 0 3 0.0 32.4663 7.2094 2.404
390 0 3 0.0 32.4663 10.0932 2.404
391 0 3 0.0 32.4663 12.9769 2.404
392 0 3 0.0 32.4663 15.8607 2.404
393 0 3 0.0 32.4663 18.7444 2.404
394 0 3 0.0 32.4663 21.6282 2.404
395 0 3 0.0 32.4663 24.5119 2.404
396 0 3 0.0 37.4611 1.4419 2.404
397 0 3 0.0 37.4611 4.3256 2.404
398 0 3 0.0 37.4611 7.2094 2.404
399 0 3 0.0 37.4611 10.0932 2.404
400 0 3 0.0 37.4611 12.9769 2.404
401 0 3 0.0 37.4611 15.8607 2.404
402 0 3 0.0 37.4611 18.7444 2.404
403 0 3 0.0 37.4611 21.6282 2.404
404 0 3 0.0 37.4611 24.5119 2.404
405 0 3 0.0 42.456 1.4419 2.404
406 0 3 0.0 42.456 4.3256 2.404
407 0 3 0.0 42.456 7.2094 2.404
408 0 3 0.0 42.456 10.0932 2.404
409 0 3 0.0 42.456 12.9769 2.404
410 0 3 0.0 42.456 15.8607 2.404
411 0 3 0.0 42.456 18.7444 2.404
412 0 3 0.0 42.456 21.6282 2.404
413 0 3 0.0 42.456 24.5119 2.404
414 0 3 0.0 47.4508 1.4419 2.404
415 0 3 0.0 47.4508 4.3256 2.404
416 0 3 0.0 47.4508 7.2094 2.404
417 0 3 0.0 47.4508 10.0932 2.404
418 0 3 0.0 47.4508 12.9769 2.404
419 0 3 0.0 47.4508 15.8607 2.404
420 0 3 0.0 47.4508 18.7444 2.404
421 0 3 0.0 47.4508 21.6282 2.404
422 0 3 0.0 47.4508 24.5119 2.404
423 0 3 0.0 24.9741 0.0 2.404
424 0 3 0.0 24.9741 2.8838 2.404
425 0 3 0.0 24.9741 5.7675 2.404
426 0 3 0.0 24.9741 8.6513 2.404
427 0 3 0.0 24.9741 11.535 2.404
428 0 3 0.0 24.9741 14.4188 2.404
429 0 3 0.0 24.9741 17.3026 2.404
430 0 3 0.0 24.9741 20.1863 2.404
431 0 3 0.0 24.9741 23.0701 2.404
432 0 3 0.0 29.9689 0.0 2.404
433 0 3 0.0 29.9689 2.8838 2.404
434 0 3 0.0 29.9689 5.7675 2.404
435 0 3 0.0 29.9689 8.6513 2.404
436 0 3 0.0 29.9689 11.535 2.404
437 0 3 0.0 29.9689 14.4188 2.404
438 0 3 0.0 29.9689 17.3025 2.404
439 0 3 0.0 29.9689 20.1863 2.404
440 0 3 0.0 29.9689 23.0701 2.404
441 0 3 0.0 34.9637 0.0 2.404
442 0 3 0.0 34.9637 2.8838 2.404
443 0 3 0.0 34.9637 5.7675 2.404
444 0 3 0.0 34.9637 8.6513 2.404
445 0 3 0.0 34.9637 11.535 2.404
446 0 3 0.0 34.9637 14.4188 2.404
447 0 3 0.0 34.9637 17.3025 2.404
448 0 3 0.0 34.9637 20.1863 2.404
449 0 3 0.0 34.9637 23.0701 2.404
450 0 3 0.0 39.9585 0.0 2.404
451 0 3 0.0 39.9585 2.8838 2.404
452 0 3 0.0 39.9585 5.7675 2.404
453 0 3 0.0 39.9585 8.6513 2.404
454 0 3 0.0 39.9585 11.535 2.404
455 0 3 0.0 39.9585 14.4188 2.404
456 0 3 0.0 39.9585 17.3026 2.404
457 0 3 0.0 39.9586 20.1863 2.404
458 0 3 0.0 39.9585 23.0701 2.404
459 0 3 0.0 44.9534 0.0 2.404
460 0 3 0.0 44.9534 2.8838 2.404
461 0 3 0.0 44.9534 5.7675 2.404
462 0 3 0.0 44.9534 8.6513 2.404
463 0 3 0.0 44.9534 11.535 2.404
464 0 3 0.0 44.9534 14.4188 2.404
465 0 3 0.0 44.9534 17.3025 2.404
466 0 3 0.0 44.9534 20.1863 2.404
467 0 3 0.0 44.9534 23.0701 2.404
468 0 3 0.0 2.4974 27.3957 2.404
469 0 3 0.0 2.4974 30.2794 2.404
470 0 3 0.0 2.4974 33.1632 2.404
471 0 3 0.0 2.4974 36.047 2.404
472 0 3 0.0 2.4974 38.9307 2.404
473 0 3 0.0 2.4974 41.8145 2.404
474 0 3 0.0 2.4974 44.6982 2.404
475 0 3 0.0 2.4974 47.582 2.404
476 0 3 0.0 2.4974 50.4657 2.404
477 0 3 0.0 7.4922 27.3957 2.404
478 0 3 0.0 7.4922 30.2794 2.404
479 0 3 0.0 7.4922 33.1632 2.404
480 0 3 0.0 7.4922 36.047 2.404
481 0 3 0.0 7.4922 38.9307 2.404
482 0 3 0.0 7.4922 41.8145 2.404
483 0 3 0.0 7.4922 44.6982 2.404
484 0 3 0.0 7.4922 47.582 2.404
485 0 3 0.0 7.4922 50.4657 2.404
486 0 3 0.0 12.487 27.3957 2.404
487 0 3 0.0 12.487 30.2794 2.404
488 0 3 0.0 12.487 33.1632 2.404
489 0 3 0.0 12.487 36.047 2.404
490 0 3 0.0 12.487 38.9307 2.404
491 0 3 0.0 12.487 41.8145 2.404
492 0 3 0.0 12.487 44.6982 2.404
493 0 3 0.0 12.487 47.582 2.404
494 0 3 0.0 12.487 50.4657 2.404
495 0 3 0.0 17.4819 27.3957 2.404
496 0 3 0.0 17.4819 30.2794 2.404
497 0 3 0.0 17.4819 33.1632 2.404
498 0 3 0.0 17.4819 36.047 2.404
499 0 3 0.0 17.4819 38.9307 2.404
500 0 3 0.0 17.4819 41.8145 2.404
501 0 3 0.0 17.4819 44.6982 2.404
502 0 3 0.0 17.4819 47.582 2.404
503 0 3 0.0 17.4819 50.4657 2.404
504 0 3 0.0 22.4767 27.3957 2.404
505 0 3 0.0 22.4767 30.2794 2.404
506 0 3 0.0 22.4767 33.1632 2.404
507 0 3 0.0 22.4767 36.047 2.404
508 0 3 0.0 22.4767 38.9307 2.404
509 0 3 0.0 22.4767 41.8145 2.404
510 0 3 0.0 22.4767 44.6982 2.404
511 0 3 0.0 22.4767 47.582 2.404
512 0 3 0.0 22.4767 50.4657 2.404
513 0 3 0.0 0.0 25.9538 2.404
514 0 3 0.0 0.0 28.8376 2.404
515 0 3 0.0 0.0 31.7213 2.404
516 0 3 0.0 0.0 34.6051 2.404
517 0 3 0.0 0.0 37.4888 2.404
518 0 3 0.0 0.0 40.3726 2.404
519 0 3 0.0 0.0 43.2564 2.404
520 0 3 0.0 0.0 46.1401 2.404
521 0 3 0.0 0.0 49.0239 2.404
522 0 3 0.0 4.9948 25.9538 2.404
523 0 3 0.0 4.9948 28.8376 2.404
524 0 3 0.0 4.9948 31.7213 2.404
525 0 3 0.0 4.9948 34.6051 2.404
526 0 3 0.0 4.9948 37.4888 2.404
527 0 3 0.0 4.9948 40.3726 2.404
528 0 3 0.0 4.9948 43.2563 2.404
529 0 3 0.0 4.9948 46.1401 2.404
530 0 3 0.0 4.9948 49.0239 2.404
531 0 3 0.0 9.9896 25.9538 2.404
532 0 3 0.0 9.9896 28.8376 2.404
533 0 3 0.0 9.9896 31.7213 2.404
534 0 3 0.0 9.9896 34.6051 2.404
535 0 3 0.0 9.9896 37.4888 2.404
536 0 3 0.0 9.9896 40.3726 2.404
537 0 3 0.0 9.9896 43.2563 2.404
538 0 3 0.0 9.9896 46.1401 2.404
539 0 3 0.0 9.9896 49.0239 2.404
540 0 3 0.0 14.9844 25.9538 2.404
541 0 3 0.0 14.9844 28.8376 2.404
542 0 3 0.0 14.9844 31.7213 2.404
543 0 3 0.0 14.9844 34.6051 2.404
544 0 3 0.0 14.9844 37.4888 2.404
545 0 3 0.0 14.9844 40.3726 2.404
546 0 3 0.0 14.9844 43.2564 2.404
547 0 3 0.0 14.9845 46.1401 2.404
548 0 3 0.0 14.9844 49.0239 2.404
549 0 3 0.0 19.9793 25.9538 2.404
550 0 3 0.0 19.9793 28.8376 2.404
551 0 3 0.0 19.9793 31.7213 2.404
552 0 3 0.0 19.9793 34.6051 2.404
553 0 3 0.0 19.9793 37.4888 2.404
554 0 3 0.0 19.9793 40.3726 2.404
555 0 3 0.0 19.9793 43.2563 2.404
556 0 3 0.0 19.9793 46.1401 2.404
557 0 3 0.0 19.9793 49.0239 2.404
558 0 3 0.0 27.4715 27.3957 2.404
559 0 3 0.0 27.4715 30.2794 2.404
560 0 3 0.0 27.4715 33.1632 2.404
561 0 3 0.0 27.4715 36.047 2.404
562 0 3 0.0 27.4715 38.9307 2.404
563 0 3 0.0 27.4715 41.8145 2.404
564 0 3 0.0 27.4715 44.6982 2.404
565 0 3 0.0 27.4715 47.582 2.404
566 0 3 0.0 27.4715 50.4657 2.404
567 0 3 0.0 32.4663 27.3957 2.404
568 0 3 0.0 32.4663 30.2794 2.404
569 0 3 0.0 32.4663 33.1632 2.404
570 0 3 0.0 32.4663 36.047 2.404
571 0 3 0.0 32.4663 38.9307 2.404
572 0 3 0.0 32.4663 41.8145 2.404
573 0 3 0.0 32.4663 44.6982 2.404
574 0 3 0.0 32.4663 47.582 2.404
575 0 3 0.0 32.4663 50.4657 2.404
576 0 3 0.0 37.4611 27.3957 2.404
577 0 3 0.0 37.4611 30.2794 2.404
578 0 3 0.0 37.4611 33.1632 2.404
579 0 3 0.0 37.4611 36.047 2.404
580 0 3 0.0 37.4611 38.9307 2.404
581 0 3 0.0 37.4611 41.8145 2.404
582 0 3 0.0 37.4611 44.6982 2.404
583 0 3 0.0 37.4611 47.582 2.404
584 0 3 0.0 37.4611 50.4657 2.404
585 0 3 0.0 42.456 27.3957 2.404
586 0 3 0.0 42.456 30.2794 2.404
587 0 3 0.0 42.456 33.1632 2.404
588 0 3 0.0 42.456 36.047 2.404
589 0 3 0.0 42.456 38.9307 2.404
590 0 3 0.0 42.456 41.8145 2.404
591 0 3 0.0 42.456 44.6982 2.404
592 0 3 0.0 42.456 47.582 2.404
593 0 3 0.0 42.456 50.4657 2.404
594 0 3 0.0 47.4508 27.3957 2.404
595 0 3 0.0 47.4508 30.2794 2.404
596 0 3 0.0 47.4508 33.1632 2.404
597 0 3 0.0 47.4508 36.047 2.404
598 0 3 0.0 47.4508 38.9307 2.404
599 0 3 0.0 47.4508 41.8145 2.404
600 0 3 0.0 47.4508 44.6982 2.404
601 0 3 0.0 47.4508 47.582 2.404
602 0 3 0.0 47.4508 50.4657 2.404
603 0 3 0.0 24.9741 25.9538 2.404
604 0 3 0.0 24.9741 28.8376 2.404
605 0 3 0.0 24.9741 31.7213 2.404
606 0 3 0.0 24.9741 34.6051 2.404
607 0 3 0.0 24.9741 37.4888 2.404
608 0 3 0.0 24.9741 40.3726 2.404
609 0 3 0.0 24.9741 43.2564 2.404
610 0 3 0.0 24.9741 46.1401 2.404
611 0 3 0.0 24.9741 49.0239 2.404
612 0 3 0.0 29.9689 25.9538 2.404
613 0 3 0.0 29.9689 28.8376 2.404
614 0 3 0.0 29.9689 31.7213 2.404
615 0 3 0.0 29.9689 34.6051 2.404
616 0 3 0.0 29.9689 37.4888 2.404
617 0 3 0.0 29.9689 40.3726 2.404
618 0 3 0.0 29.9689 43.2563 2.404
619 0 3 0.0 29.9689 46.1401 2.404
620 0 3 0.0 29.9689 49.0239 2.404
621 0 3 0.0 34.9637 25.9538 2.404
622 0 3 0.0 34.9637 28.8376 2.404
623 0 3 0.0 34.9637 31.7213 2.404
624 0 3 0.0 34.9637 34.6051 2.404
625 0 3 0.0 34.9637 37.4888 2.404
626 0 3 0.0 34.9637 40.3726 2.404
627 0 3 0.0 34.9637 43.2563 2.404
628 0 3 0.0 34.9637 46.1401 2.404
629 0 3 0.0 34.9637 49.0239 2.404
630 0 3 0.0 39.9585 25.9538 2.404
631 0 3 0.0 39.9585 28.8376 2.404
632 0 3 0.0 39.9585 31.7213 2.404
633 0 3 0.0 39.9585 34.6051 2.404
634 0 3 0.0 39.9585 37.4888 2.404
635 0 3 0.0 39.9585 40.3726 2.404
636 0 3 0.0 39.9585 43.2564 2.404
637 0 3 0.0 39.9586 46.1401 2.404
638 0 3 0.0 39.9585 49.0239 2.404
639 0 3 0.0 44.9534 25.9538 2.404
640 0 3 0.0 44.9534 28.8376 2.404
641 0 3 0.0 44.9534 31.7213 2.404
642 0 3 0.0 44.9534 34.6051 2.404
643 0 3 0.0 44.9534 37.4888 2.404
644 0 3 0.0 44.9534 40.3726 2.404
645 0 3 0.0 44.9534 43.2563 2.404
646 0 3 0.0 44.9534 46.1401 2.404
647 0 3 0.0 44.9534 49.0239 2.404
648 0 3 0 0.8325 1.4419 4.63208
649 0 3 0 0.8325 4.3256 4.63208
650 0 3 0 0.8325 7.2094 4.63208
651 0 3 0 0.8325 10.0932 4.63208
652 0 3 0 0.8325 12.9769 4.63208
653 0 3 0 0.8325 15.8607 4.63208
654 0 3 0 0.8325 18.7444 4.63208
655 0 3 0 0.8325 21.6282 4.63208
656 0 3 0 0.8325 24.512 4.63208
657 0 3 0 0.8325 27.3957 4.63208
658 0 3 0 0.8325 30.2795 4.63208
659 0 3 0 0.8325 33.1632 4.63208
660 0 3 0 0.8325 36.047 4.63208
661 0 3 0 0.8325 38.9308 4.63208
662 0 3 0 0.8325 41.8145 4.63208
663 0 3 0 0.8325 44.6983 4.63208
664 0 3 0 0.8325 47.582 4.63208
665 0 3 0 0.8325 50.4658 4.63208
666 0 3 0 5.8273 1.4419 4.63208
667 0 3 0 5.8273 4.3256 4.63208
668 0 3 0 5.8273 7.2094 4.63208
669 0 3 0 5.8273 10.0932 4.63208
670 0 3 0 5.8273 12.9769 4.63208
671 0 3 0 5.8273 15.8607 4.63208
672 0 3 0 5.8273 18.7444 4.63208
673 0 3 0 5.8273 21.6282 4.63208
674 0 3 0 5.8273 24.512 4.63208
675 0 3 0 5.8273 27.3957 4.63208
676 0 3 0 5.8273 30.2795 4.63208
677 0 3 0 5.8273 33.1632 4.63208
678 0 3 0 5.8273 36.047 4.63208
679 0 3 0 5.8273 38.9308 4.63208
680 0 3 0 5.8273 41.8145 4.63208
681 0 3 0 5.8273 44.6983 4.63208
682 0 3 0 5.8273 47.582 4.63208
683 0 3 0 5.8273 50.4658 4.63208
684 0 3 0 10.8221 1.4419 4.63208
685 0 3 0 10.8221 4.3256 4.63208
686 0 3 0 10.8221 7.2094 4.63208
687 0 3 0 10.8221 10.0932 4.63208
688 0 3 0 10.8221 12.9769 4.63208
689 0 3 0 10.8221 15.8607 4.63208
690 0 3 0 10.8221 18.7444 4.63208
691 0 3 0 10.8221 21.6282 4.63208
692 0 3 0 10.8221 24.512 4.63208
693 0 3 0 10.8221 27.3957 4.63208
694 0 3 0 10.8221 30.2795 4.63208
695 0 3 0 10.8221 33.1632 4.63208
696 0 3 0 10.8221 36.047 4.63208
697 0 3 0 10.8221 38.9308 4.63208
698 0 3 0 10.8221 41.8145 4.63208
699 0 3 0 10.8221 44.6983 4.63208
700 0 3 0 10.8221 47.582 4.63208
701 0 3 0 10.8221 50.4658 4.63208
702 0 3 0 15.8169 1.4419 4.63208
703 0 3 0 15.8169 4.3256 4.63208
704 0 3 0 15.8169 7.2094 4.63208
705 0 3 0 15.8169 10.0932 4.63208
706 0 3 0 15.8169 12.9769 4.63208
707 0 3 0 15.8169 15.8607 4.63208
708 0 3 0 15.8169 18.7444 4.63208
709 0 3 0 15.8169 21.6282 4.63208
710 0 3 0 15.8169 24.512 4.63208
711 0 3 0 15.8169 27.3957 4.63208
712 0 3 0 15.8169 30.2795 4.63208
713 0 3 0 15.8169 33.1632 4.63208
714 0 3 0 15.8169 36.047 4.63208
715 0 3 0 15.8169 38.9308 4.63208
716 0 3 0 15.8169 41.8145 4.63208
717 0 3 0 15.8169 44.6983 4.63208
718 0 3 0 15.8169 47.582 4.63208
719 0 3 0 15.8169 50.4658 4.63208
720 0 3 0 20.8117 1.4419 4.63208
721 0 3 0 20.8117 4.3256 4.63208
722 0 3 0 20.8117 7.2094 4.63208
723 0 3 0 20.8117 10.0932 4.63208
724 0 3 0 20.8117 12.9769 4.63208
725 0 3 0 20.8117 15.8607 4.63208
726 0 3 0 20.8117 18.7444 4.63208
727 0 3 0 20.8117 21.6282 4.63208
728 0 3 0 20.8117 24.512 4.63208
729 0 3 0 20.8117 27.3957 4.63208
730 0 3 0 20.8117 30.2795 4.63208
731 0 3 0 20.8117 33.1632 4.63208
732 0 3 0 20.8117 36.047 4.63208
733 0 3 0 20.8117 38.9308 4.63208
734 0 3 0 20.8117 41.8145 4.63208
735 0 3 0 20.8117 44.6983 4.63208
736 0 3 0 20.8117 47.582 4.63208
737 0 3 0 20.8117 50.4658 4.63208
738 0 3 0 25.8065 1.4419 4.63208
739 0 3 0 25.8065 4.3256 4.63208
740 0 3 0 25.8065 7.2094 4.63208
741 0 3 0 25.8065 10.0932 4.63208
742 0 3 0 25.8065 12.9769 4.63208
743 0 3 0 25.8065 15.8607 4.63208
744 0 3 0 25.8065 18.7444 4.63208
745 0 3 0 25.8065 21.6282 4.63208
746 0 3 0 25.8065 24.512 4.63208
747 0 3 0 25.8065 27.3957 4.63208
748 0 3 0 25.8065 30.2795 4.63208
749 0 3 0 25.8065 33.1632 4.63208
750 0 3 0 25.8065 36.047 4.63208
751 0 3 0 25.8065 38.9308 4.63208
752 0 3 0 25.8065 41.8145 4.63208
753 0 3 0 25.8065 44.6983 4.63208
754 0 3 0 25.8065 47.582 4.63208
755 0 3 0 25.8065 50.4658 4.63208
756 0 3 0 30.8013 1.4419 4.63208
757 0 3 0 30.8013 4.3256 4.63208
758 0 3 0 30.8013 7.2094 4.63208
759 0 3 0 30.8013 10.0932 4.63208
760 0 3 0 30.8013 12.9769 4.63208
761 0 3 0 30.8013 15.8607 4.63208
762 0 3 0 30.8013 18.7444 4.63208
763 0 3 0 30.8013 21.6282 4.63208
764 0 3 0 30.8013 24.512 4.63208
765 0 3 0 30.8013 27.3957 4.63208
766 0 3 0 30.8013 30.2795 4.63208
767 0 3 0 30.8013 33.1632 4.63208
768 0 3 0 30.8013 36.047 4.63208
769 0 3 0 30.8013 38.9308 4.63208
770 0 3 0 30.8013 41.8145 4.63208
771 0 3 0 30.8013 44.6983 4.63208
772 0 3 0 30.8013 47.582 4.63208
773 0 3 0 30.8013 50.4658 4.63208
774 0 3 0 35.7961 1.4419 4.63208
775 0 3 0 35.7961 4.3256 4.63208
776 0 3 0 35.7961 7.2094 4.63208
777 0 3 0 35.7961 10.0932 4.63208
778 0 3 0 35.7961 12.9769 4.63208
779 0 3 0 35.7961 15.8607 4.63208
780 0 3 0 35.7961 18.7444 4.63208
781 0 3 0 35.7961 21.6282 4.63208
782 0 3 0 35.7961 24.512 4.63208
783 0 3 0 35.7961 27.3957 4.63208
784 0 3 0 35.7961 30.2795 4.63208
785 0 3 0 35.7961 33.1632 4.63208
786 0 3 0 35.7961 36.047 4.63208
787 0 3 0 35.7961 38.9308 4.63208
788 0 3 0 35.7961 41.8145 4.63208
789 0 3 0 35.7961 44.6983 4.63208
790 0 3 0 35.7961 47.582 4.63208
791 0 3 0 35.7961 50.4658 4.63208
792 0 3 0 40.791 1.4419 4.63208
793 0 3 0 40.791 4.3256 4.63208
794 0 3 0 40.791 7.2094 4.63208
795 0 3 0 40.791 10.0932 4.63208
796 0 3 0 40.791 12.9769 4.63208
797 0 3 0 40.791 15.8607 4.63208
798 0 3 0 40.791 18.7444 4.63208
799 0 3 0 40.791 21.6282 4.63208
800 0 3 0 40.791 24.512 4.63208
801 0 3 0 40.791 27.3957 4.63208
802 0 3 0 40.791 30.2795 4.63208
803 0 3 0 40.791 33.1632 4.63208
804 0 3 0 40.791 36.047 4.63208
805 0 3 0 40.791 38.9308 4.63208
806 0 3 0 40.791 41.8145 4.63208
807 0 3 0 40.791 44.6983 4.63208
808 0 3 0 40.791 47.582 4.63208
809 0 3 0 40.791 50.4658 4.63208
810 0 3 0 45.7858 1.4419 4.63208
811 0 3 0 45.7858 4.3256 4.63208
812 0 3 0 45.7858 7.2094 4.63208
813 0 3 0 45.7858 10.0932 4.63208
814 0 3 0 45.7858 12.9769 4.63208
815 0 3 0 45.7858 15.8607 4.63208
816 0 3 0 45.7858 18.7444 4.63208
817 0 3 0 45.7858 21.6282 4.63208
818 0 3 0 45.7858 24.512 4.63208
819 0 3 0 45.7858 27.3957 4.63208
820 0 3 0 45.7858 30.2795 4.63208
821 0 3 0 45.7858 33.1632 4.63208
822 0 3 0 45.7858 36.047 4.63208
823 0 3 0 45.7858 38.9308 4.63208
824 0 3 0 45.7858 41.8145 4.63208
825 0 3 0 45.7858 44.6983 4.63208
826 0 3 0 45.7858 47.582 4.63208
827 0 3 0 45.7858 50.4658 4.63208
828 0 3 0 3.3299 0.0 4.63208
829 0 3 0 3.3299 2.8838 4.63208
830 0 3 0 3.3299 5.7675 4.63208
831 0 3 0 3.3299 8.6513 4.63208
832 0 3 0 3.3299 11.535 4.63208
833 0 3 0 3.3299 14.4188 4.63208
834 0 3 0 3.3299 17.3026 4.63208
835 0 3 0 3.3299 20.1863 4.63208
836 0 3 0 3.3299 23.0701 4.63208
837 0 3 0 3.3299 25.9538 4.63208
838 0 3 0 3.3299 28.8376 4.63208
839 0 3 0 3.3299 31.7214 4.63208
840 0 3 0 3.3299 34.6051 4.63208
841 0 3 0 3.3299 37.4889 4.63208
842 0 3 0 3.3299 40.3726 4.63208
843 0 3 0 3.3299 43.2564 4.63208
844 0 3 0 3.3299 46.1402 4.63208
845 0 3 0 3.3299 49.0239 4.63208
846 0 3 0 8.3247 0.0 4.63208
847 0 3 0 8.3247 2.8838 4.63208
848 0 3 0 8.3247 5.7675 4.63208
849 0 3 0 8.3247 8.6513 4.63208
850 0 3 0 8.3247 11.535 4.63208
851 0 3 0 8.3247 14.4188 4.63208
852 0 3 0 8.3247 17.3026 4.63208
853 0 3 0 8.3247 20.1863 4.63208
854 0 3 0 8.3247 23.0701 4.63208
855 0 3 0 8.3247 25.9538 4.63208
856 0 3 0 8.3247 28.8376 4.63208
857 0 3 0 8.3247 31.7214 4.63208
858 0 3 0 8.3247 34.6051 4.63208
859 0 3 0 8.3247 37.4889 4.63208
860 0 3 0 8.3247 40.3726 4.63208
861 0 3 0 8.3247 43.2564 4.63208
862 0 3 0 8.3247 46.1402 4.63208
863 0 3 0 8.3247 49.0239 4.63208
864 0 3 0 13.3195 0.0 4.63208
865 0 3 0 13.3195 2.8838 4.63208
866 0 3 0 13.3195 5.7675 4.63208
867 0 3 0 13.3195 8.6513 4.63208
868 0 3 0 13.3195 11.535 4.63208
869 0 3 0 13.3195 14.4188 4.63208
870 0 3 0 13.3195 17.3026 4.63208
871 0 3 0 13.3195 20.1863 4.63208
872 0 3 0 13.3195 23.0701 4.63208
873 0 3 0 13.3195 25.9538 4.63208
874 0 3 0 13.3195 28.8376 4.63208
875 0 3 0 13.3195 31.7214 4.63208
876 0 3 0 13.3195 34.6051 4.63208
877 0 3 0 13.3195 37.4889 4.63208
878 0 3 0 13.3195 40.3726 4.63208
879 0 3 0 13.3195 43.2564 4.63208