This is a LAMMPS datafile 

17342 atoms
10330 bonds
5765 angles
1200 dihedrals
0 impropers 

8 atom types
3 bond types
3 angle types
1 dihedral types 

0 49.9482 xlo xhi
0 51.9076 ylo yhi
1.45 88.1 zlo zhi
 
Masses 

1 32.065
2 14.0
3 196.96657
4 1.0
5 16.0
6 12.0
7 12.0
8 15.0
 
Atoms 

1 1 1 0.0 44.8676 5.82146 15.7967
2 1 2 0.0 46.1756 5.85277 17.1012
3 1 2 0.0 45.8961 5.20167 18.4437
4 1 2 0.0 47.2097 5.174 19.233
5 1 2 0.0 47.0394 4.66242 20.6801
6 1 2 0.0 48.4598 4.4336 21.2112
7 1 2 0.0 48.2484 4.06038 22.708
8 1 2 0.0 49.5866 3.96476 23.3994
9 1 2 0.0 49.3275 3.26988 24.766
10 1 2 0.0 0.7274 3.25406 25.5496
11 1 2 0.0 0.58206 2.41753 26.8606
12 1 2 0 1.82426 2.43046 27.7171
13 2 1 0.0 45.1644 14.0261 15.7967
14 2 2 0.0 45.9667 14.6169 17.3368
15 2 2 0.0 46.2872 13.5776 18.4266
16 2 2 0.0 47.0881 14.199 19.5787
17 2 2 0.0 47.1763 13.2153 20.767
18 2 2 0.0 48.1879 13.6407 21.7549
19 2 2 0.0 48.476 12.4283 22.7733
20 2 2 0.0 49.4986 12.715 23.8094
21 2 2 0.0 49.5602 11.5775 24.7936
22 2 2 0.0 0.77079 11.7588 25.8879
23 2 2 0.0 0.64326 10.7035 27.0868
24 2 2 0 1.62131 11.1017 28.1854
25 3 1 0.0 44.9392 23.2479 15.7967
26 3 2 0.0 45.8662 23.5653 17.2698
27 3 2 0.0 46.0465 22.3785 18.2984
28 3 2 0.0 47.0042 22.746 19.4238
29 3 2 0.0 47.1087 21.687 20.4683
30 3 2 0.0 48.1629 22.1861 21.6036
31 3 2 0.0 48.3123 21.1545 22.6179
32 3 2 0.0 49.306 21.496 23.718
33 3 2 0.0 49.3666 20.4449 24.8907
34 3 2 0.0 0.46126 20.7988 25.9722
35 3 2 0.0 0.54161 19.5881 27.0368
36 3 2 0 1.69281 19.7413 28.0133
37 4 1 0.0 44.9234 32.0854 15.7967
38 4 2 0.0 46.0414 32.2731 17.1549
39 4 2 0.0 46.4981 30.8555 17.8653
40 4 2 0.0 47.1777 31.219 19.1664
41 4 2 0.0 47.3208 30.1936 20.194
42 4 2 0.0 48.397 30.7066 21.2125
43 4 2 0.0 48.4736 29.7084 22.2971
44 4 2 0.0 49.5324 29.8794 23.27
45 4 2 0.0 49.315 28.9458 24.4457
46 4 2 0.0 0.45863 29.2207 25.57
47 4 2 0.0 0.51139 27.9894 26.6207
48 4 2 0 1.55749 28.387 27.6021
49 5 1 0.0 44.8912 40.324 15.7967
50 5 2 0.0 45.9971 40.7238 17.1956
51 5 2 0.0 45.9381 39.6076 18.2191
52 5 2 0.0 46.9788 39.9384 19.3378
53 5 2 0.0 46.918 38.788 20.3607
54 5 2 0.0 48.0169 39.0141 21.3548
55 5 2 0.0 48.1911 37.8348 22.3955
56 5 2 0.0 49.2349 38.2134 23.4744
57 5 2 0.0 49.463 37.1092 24.5986
58 5 2 0.0 0.5155 37.5585 25.6342
59 5 2 0.0 0.68496 36.459 26.8452
60 5 2 0 1.63073 37.0677 27.8312
61 6 1 0.0 45.2623 49.15 15.7967
62 6 2 0.0 46.2484 49.4106 17.3247
63 6 2 0.0 46.2776 48.2285 18.2918
64 6 2 0.0 47.077 48.5089 19.5623
65 6 2 0.0 47.0256 47.4102 20.7118
66 6 2 0.0 48.054 47.7086 21.7633
67 6 2 0.0 48.0645 46.7943 22.976
68 6 2 0.0 49.0854 47.1471 23.9733
69 6 2 0.0 49.5956 45.9479 24.7367
70 6 2 0.0 0.73921 46.4216 25.6066
71 6 2 0.0 0.7087 45.2933 26.7199
72 6 2 0 1.66474 45.698 27.7872
73 7 1 0.0 0.00223 5.83329 15.7967
74 7 2 0.0 1.30749 6.23683 16.9422
75 7 2 0.0 1.48042 5.29499 18.1001
76 7 2 0.0 2.41061 5.90452 19.1844
77 7 2 0.0 2.38961 4.98801 20.4028
78 7 2 0.0 3.29992 5.26852 21.5951
79 7 2 0.0 3.40916 3.93155 22.3576
80 7 2 0.0 4.23544 4.04383 23.6311
81 7 2 0.0 4.29796 2.81061 24.4971
82 7 2 0.0 5.31862 3.17943 25.6036
83 7 2 0.0 5.25694 2.16839 26.7012
84 7 2 0 6.52621 2.4435 27.569
85 8 1 0.0 0.29288 14.757 15.7967
86 8 2 0.0 1.4077 15.1807 17.1267
87 8 2 0.0 1.14578 14.4004 18.3864
88 8 2 0.0 2.30025 14.511 19.2286
89 8 2 0.0 2.35242 13.4963 20.3018
90 8 2 0.0 3.60221 13.6496 21.1354
91 8 2 0.0 3.49831 12.7561 22.3565
92 8 2 0.0 4.72724 13.0374 23.2012
93 8 2 0.0 4.46966 12.2932 24.5848
94 8 2 0.0 5.75801 12.215 25.4632
95 8 2 0.0 5.52532 11.2219 26.7087
96 8 2 0 6.80695 11.0865 27.4396
97 9 1 0.0 49.9031 23.0591 15.7967
98 9 2 0.0 0.70777 23.4358 17.4526
99 9 2 0.0 1.35541 22.3138 18.1699
100 9 2 0.0 1.87926 22.8122 19.5171
101 9 2 0.0 2.10618 21.5702 20.3613
102 9 2 0.0 3.07235 21.9805 21.4973
103 9 2 0.0 3.07402 21.0995 22.8341
104 9 2 0.0 4.43158 21.4185 23.4824
105 9 2 0.0 4.43195 20.726 24.9256
106 9 2 0.0 5.78355 20.6909 25.6738
107 9 2 0.0 5.64614 19.7291 26.8387
108 9 2 0 6.92215 19.7175 27.7966
109 10 1 0.0 49.5707 31.2844 15.7967
110 10 2 0.0 0.43077 31.6654 17.2936
111 10 2 0.0 1.29599 30.5919 18.0994
112 10 2 0.0 1.99632 31.076 19.4257
113 10 2 0.0 2.40116 29.9109 20.2683
114 10 2 0.0 3.43282 30.3294 21.3796
115 10 2 0.0 3.53265 29.2415 22.3564
116 10 2 0.0 4.49948 29.5507 23.4772
117 10 2 0.0 4.50197 28.3398 24.4736
118 10 2 0.0 5.46145 28.7822 25.5979
119 10 2 0.0 5.51 27.7327 26.665
120 10 2 0 6.33261 28.3691 27.8169
121 11 1 0.0 49.9428 40.3531 15.7967
122 11 2 0.0 1.31701 40.029 17.102
123 11 2 0.0 0.92672 39.9071 18.564
124 11 2 0.0 2.16664 39.4504 19.2145
125 11 2 0.0 1.96721 39.2461 20.713
126 11 2 0.0 3.29513 38.9536 21.4036
127 11 2 0.0 3.1331 38.3746 22.799
128 11 2 0.0 4.42334 38.2013 23.5938
129 11 2 0.0 4.08608 37.6863 24.988
130 11 2 0.0 5.31864 37.7104 25.8483
131 11 2 0.0 5.49 36.7008 26.9239
132 11 2 0 6.73445 37.0409 27.7758
133 12 1 0.0 0.1264 49.0443 15.7967
134 12 2 0.0 0.95288 49.4332 17.3802
135 12 2 0.0 1.50962 48.253 18.0194
136 12 2 0.0 1.93216 48.5691 19.4755
137 12 2 0.0 2.5964 47.3719 20.2088
138 12 2 0.0 3.14134 47.6816 21.6068
139 12 2 0.0 3.75619 46.4416 22.3161
140 12 2 0.0 4.1977 46.9157 23.6797
141 12 2 0.0 4.74521 45.6839 24.4913
142 12 2 0.0 5.27106 46.1812 25.8136
143 12 2 0.0 5.56521 45.0496 26.807
144 12 2 0 6.5008 45.6985 27.9195
145 13 1 0.0 5.04727 5.46477 15.7967
146 13 2 0.0 6.27572 5.93684 17.2036
147 13 2 0.0 6.39065 4.79104 18.3052
148 13 2 0.0 7.09842 5.32727 19.4943
149 13 2 0.0 7.25227 4.24141 20.5209
150 13 2 0.0 8.18053 4.94218 21.5046
151 13 2 0.0 8.37366 3.97612 22.5079
152 13 2 0.0 9.47388 4.29046 23.5638
153 13 2 0.0 9.36097 3.07292 24.554
154 13 2 0.0 10.5781 3.13366 25.4587
155 13 2 0.0 10.5261 1.97231 26.5687
156 13 2 0 11.4261 2.43445 27.7243
157 14 1 0.0 5.04923 14.4374 15.7967
158 14 2 0.0 5.9983 14.8788 17.2994
159 14 2 0.0 6.29269 13.6929 18.1537
160 14 2 0.0 7.31478 14.1664 19.3053
161 14 2 0.0 7.54878 12.9714 20.2734
162 14 2 0.0 8.51242 13.4104 21.4038
163 14 2 0.0 8.63418 12.3708 22.4426
164 14 2 0.0 9.60024 12.7427 23.5825
165 14 2 0.0 9.51356 11.6612 24.6071
166 14 2 0.0 10.4509 11.9575 25.6549
167 14 2 0.0 10.6509 10.7607 26.6036
168 14 2 0 11.7381 11.0957 27.6638
169 15 1 0.0 4.67444 23.0542 15.7967
170 15 2 0.0 5.74354 23.1928 17.239
171 15 2 0.0 5.71678 22.1193 18.3445
172 15 2 0.0 6.87773 22.4164 19.2529
173 15 2 0.0 6.75947 21.5277 20.5044
174 15 2 0.0 8.07647 21.5512 21.288
175 15 2 0.0 7.9963 20.5916 22.4003
176 15 2 0.0 9.12278 21.0228 23.3766
177 15 2 0.0 9.25645 20.0055 24.4825
178 15 2 0.0 10.4238 20.3545 25.3901
179 15 2 0.0 10.2726 19.5423 26.6481
180 15 2 0 11.5719 19.7527 27.4563
181 16 1 0.0 5.22648 31.6412 15.7967
182 16 2 0.0 6.63676 31.777 16.9882
183 16 2 0.0 6.29772 31.3943 18.4135
184 16 2 0.0 7.65051 31.4221 19.2396
185 16 2 0.0 7.41952 30.8466 20.5851
186 16 2 0.0 8.77825 30.7049 21.3386
187 16 2 0.0 8.57923 29.9636 22.8502
188 16 2 0.0 9.93899 30.0178 23.6684
189 16 2 0.0 9.8176 29.2928 24.9174
190 16 2 0.0 11.1422 29.1424 25.7837
191 16 2 0.0 10.523 28.4979 27.013
192 16 2 0 11.7563 28.4055 28.0078
193 17 1 0.0 4.67557 40.1641 15.7967
194 17 2 0.0 6.22025 40.3842 16.7333
195 17 2 0.0 6.18244 39.8077 18.2408
196 17 2 0.0 7.57978 39.8373 18.9317
197 17 2 0.0 7.26128 38.9706 20.2519
198 17 2 0.0 8.42908 39.2311 21.1713
199 17 2 0.0 8.51295 38.1043 22.3361
200 17 2 0.0 9.7006 38.2914 23.2217
201 17 2 0.0 9.73965 37.2653 24.3366
202 17 2 0.0 10.7333 37.696 25.4681
203 17 2 0.0 10.6041 36.7172 26.6017
204 17 2 0 11.6349 37.0506 27.5712
205 18 1 0.0 4.84988 49.0657 15.7967
206 18 2 0.0 6.22539 49.2339 16.9107
207 18 2 0.0 6.19349 48.1719 18.0299
208 18 2 0.0 7.41526 48.3491 18.8355
209 18 2 0.0 7.42582 47.3752 19.9534
210 18 2 0.0 8.47911 47.8466 20.869
211 18 2 0.0 8.37068 47.1148 22.204
212 18 2 0.0 9.46081 47.3818 23.2464
213 18 2 0.0 9.48417 46.2419 24.2075
214 18 2 0.0 10.5072 46.5199 25.1512
215 18 2 0.0 10.5949 45.4105 26.2649
216 18 2 0 11.7365 45.7005 27.2444
217 19 1 0.0 10.0457 5.58204 15.7967
218 19 2 0.0 10.5629 5.99533 17.4973
219 19 2 0.0 11.3312 4.86449 18.2496
220 19 2 0.0 11.7844 5.32849 19.6943
221 19 2 0.0 12.5349 4.29445 20.5178
222 19 2 0.0 13.1461 4.84751 21.9044
223 19 2 0.0 13.6775 3.6745 22.6239
224 19 2 0.0 14.1147 4.08323 23.9952
225 19 2 0.0 14.3173 2.93383 24.8215
226 19 2 0.0 15.3468 3.40519 25.8137
227 19 2 0.0 15.4126 2.22414 26.7954
228 19 2 0 16.6483 2.44037 27.6403
229 20 1 0.0 9.93486 14.8191 15.7967
230 20 2 0.0 11.272 14.9617 17.0545
231 20 2 0.0 11.2882 13.7037 18.0137
232 20 2 0.0 12.373 13.8997 19.1131
233 20 2 0.0 12.3582 12.8416 20.3372
234 20 2 0.0 13.4822 13.2231 21.4472
235 20 2 0.0 13.5332 12.1926 22.5337
236 20 2 0.0 14.6204 12.4791 23.5674
237 20 2 0.0 14.7148 11.4344 24.6716
238 20 2 0.0 15.711 11.7603 25.7893
239 20 2 0.0 15.5211 10.8474 27.041
240 20 2 0 16.6837 11.0939 28.0736
241 21 1 0.0 9.94943 23.4057 15.7967
242 21 2 0.0 11.1893 23.5979 17.1105
243 21 2 0.0 10.9006 22.6484 18.3353
244 21 2 0.0 12.073 22.8061 19.2739
245 21 2 0.0 11.9957 21.7023 20.3825
246 21 2 0.0 13.2457 22.0413 21.1754
247 21 2 0.0 13.2794 21.0835 22.326
248 21 2 0.0 14.4195 21.3141 23.2774
249 21 2 0.0 14.3763 20.3261 24.5117
250 21 2 0.0 15.5349 20.6733 25.534
251 21 2 0.0 15.4387 19.757 26.7251
252 21 2 0 16.7239 19.7412 27.5287
253 22 1 0.0 9.81116 31.2817 15.7967
254 22 2 0.0 10.9564 31.635 17.1782
255 22 2 0.0 11.2784 30.4726 18.1219
256 22 2 0.0 12.3667 31.0517 19.1142
257 22 2 0.0 12.5072 29.9333 20.1056
258 22 2 0.0 13.6227 30.3223 21.1691
259 22 2 0.0 13.5131 29.2777 22.314
260 22 2 0.0 14.6116 29.5504 23.3817
261 22 2 0.0 14.6477 28.4821 24.4878
262 22 2 0.0 15.7247 28.8433 25.4776
263 22 2 0.0 15.7396 27.8973 26.6659
264 22 2 0 16.7241 28.401 27.7243
265 23 1 0.0 9.75772 40.4211 15.7967
266 23 2 0.0 11.1079 40.5379 16.9432
267 23 2 0.0 11.1361 39.4513 18.0629
268 23 2 0.0 12.1411 39.8798 19.1617
269 23 2 0.0 12.3541 38.7631 20.1918
270 23 2 0.0 13.0664 39.3042 21.4646
271 23 2 0.0 13.7346 38.1228 22.2837
272 23 2 0.0 14.6858 38.6437 23.3255
273 23 2 0.0 14.7434 37.5419 24.3395
274 23 2 0.0 15.8333 37.7892 25.3694
275 23 2 0.0 15.4675 37.0339 26.6059
276 23 2 0 16.6143 37.056 27.5679
277 24 1 0.0 10.2349 48.8143 15.7967
278 24 2 0.0 11.3722 49.4972 17.2275
279 24 2 0.0 11.6181 48.5273 18.3995
280 24 2 0.0 12.5483 48.9284 19.5187
281 24 2 0.0 12.7805 47.7145 20.4041
282 24 2 0.0 13.8811 47.8652 21.388
283 24 2 0.0 14.1075 46.6226 22.1828
284 24 2 0.0 14.7114 47.0113 23.571
285 24 2 0.0 14.5587 45.8227 24.597
286 24 2 0.0 15.3135 46.3136 25.7482
287 24 2 0.0 15.4736 45.2138 26.7077
288 24 2 0 16.4925 45.6989 27.7658
289 25 1 0.0 14.4747 6.00105 15.7967
290 25 2 0.0 15.4122 6.398 17.428
291 25 2 0.0 16.0589 5.18005 18.0965
292 25 2 0.0 16.6344 5.61057 19.5078
293 25 2 0.0 17.1111 4.40891 20.3718
294 25 2 0.0 17.6614 4.93915 21.7484
295 25 2 0.0 18.0929 3.62131 22.5266
296 25 2 0.0 18.8545 4.06307 23.76
297 25 2 0.0 19.311 2.86993 24.5909
298 25 2 0.0 20.1924 3.22763 25.8025
299 25 2 0.0 20.432 2.0176 26.7214
300 25 2 0 21.4544 2.42767 27.7425
301 26 1 0.0 14.9078 14.4173 15.7967
302 26 2 0.0 15.8422 14.9254 17.2068
303 26 2 0.0 16.2141 13.6817 18.0349
304 26 2 0.0 17.3398 14.0389 19.0044
305 26 2 0.0 17.3894 12.886 19.9914
306 26 2 0.0 18.4197 13.1802 21.0466
307 26 2 0.0 18.2766 12.2381 22.208
308 26 2 0.0 19.4314 12.5364 23.2324
309 26 2 0.0 19.2893 11.6692 24.4838
310 26 2 0.0 20.465 11.9536 25.453
311 26 2 0.0 20.4857 10.828 26.5315
312 26 2 0 21.665 11.0925 27.5485
313 27 1 0.0 15.2246 22.6004 15.7967
314 27 2 0.0 15.9711 22.9677 17.4676
315 27 2 0.0 16.7162 21.7776 18.161
316 27 2 0.0 16.8104 22.1076 19.6307
317 27 2 0.0 17.8695 21.3273 20.4339
318 27 2 0.0 18.034 21.9842 21.877
319 27 2 0.0 19.1472 21.313 22.6694
320 27 2 0.0 18.6799 19.9759 23.2963
321 27 2 0.0 19.8632 19.5873 24.284
322 27 2 0.0 19.8154 20.6448 25.4383
323 27 2 0.0 20.8389 20.2461 26.5808
324 27 2 0 20.3488 19.0869 27.4268
325 28 1 0.0 15.0935 31.6265 15.7967
326 28 2 0.0 16.2642 31.7103 17.1515
327 28 2 0.0 16.1326 30.5716 18.2418
328 28 2 0.0 17.1549 30.8276 19.3592
329 28 2 0.0 17.3457 29.595 20.2775
330 28 2 0.0 18.4385 29.9178 21.3287
331 28 2 0.0 18.3981 28.896 22.4706
332 28 2 0.0 19.5608 29.2194 23.5112
333 28 2 0.0 19.3796 28.2866 24.7271
334 28 2 0.0 20.6272 28.6745 25.6067
335 28 2 0.0 20.5462 27.9245 27.0055
336 28 2 0 21.6678 28.3972 27.9288
337 29 1 0.0 14.7952 40.1857 15.7967
338 29 2 0.0 15.8493 40.8082 17.2228
339 29 2 0.0 16.3617 39.6248 18.0721
340 29 2 0.0 17.0419 40.1763 19.2719
341 29 2 0.0 17.1276 39.1139 20.3879
342 29 2 0.0 18.303 39.435 21.4073
343 29 2 0.0 18.174 38.4122 22.548
344 29 2 0.0 19.322 38.6366 23.5249
345 29 2 0.0 19.4264 37.5609 24.4922
346 29 2 0.0 20.3931 38.0012 25.6739
347 29 2 0.0 20.7059 36.7337 26.5641
348 29 2 0 21.6882 37.0532 27.6614
349 30 1 0.0 15.2622 49.2387 15.7967
350 30 2 0.0 16.3481 49.5307 17.1905
351 30 2 0.0 16.3893 48.2785 18.1704
352 30 2 0.0 17.1387 48.7079 19.5367
353 30 2 0.0 17.598 47.4602 20.24
354 30 2 0.0 18.2874 47.8565 21.5139
355 30 2 0.0 18.8478 46.6439 22.0486
356 30 2 0.0 19.6742 47.0519 23.3013
357 30 2 0.0 19.9894 45.7848 24.1578
358 30 2 0.0 20.8776 46.1262 25.3033
359 30 2 0.0 20.6986 45.1937 26.4665
360 30 2 0 21.7138 45.7005 27.5263
361 31 1 0.0 19.7798 5.78278 15.7967
362 31 2 0.0 21.0614 5.88307 17.1142
363 31 2 0.0 20.9502 4.93124 18.2607
364 31 2 0.0 21.9562 5.19833 19.2732
365 31 2 0.0 21.7643 4.35137 20.4673
366 31 2 0.0 23.1147 4.43036 21.2634
367 31 2 0.0 23.0822 3.41643 22.4235
368 31 2 0.0 24.3486 3.45775 23.2446
369 31 2 0.0 24.1139 2.97539 24.7266
370 31 2 0.0 25.4331 3.11224 25.5644
371 31 2 0.0 25.1697 2.5698 27.0233
372 31 2 0 26.6136 2.43425 27.642
373 32 1 0.0 20.0037 14.436 15.7967
374 32 2 0.0 21.5 14.6427 16.9983
375 32 2 0.0 21.4289 13.5501 18.0634
376 32 2 0.0 22.5548 13.8049 19.0741
377 32 2 0.0 22.2957 12.9855 20.3003
378 32 2 0.0 23.4253 13.2973 21.3261
379 32 2 0.0 23.4015 12.1323 22.446
380 32 2 0.0 24.4337 12.5751 23.4276
381 32 2 0.0 24.4763 11.6336 24.7394
382 32 2 0.0 25.7018 11.8388 25.7419
383 32 2 0.0 25.4354 11.0447 26.9774
384 32 2 0 26.7045 11.0972 27.8596
385 33 1 0.0 20.1527 22.8 15.7967
386 33 2 0.0 21.3297 23.0479 17.1071
387 33 2 0.0 21.2384 22.0374 18.2304
388 33 2 0.0 22.3438 22.324 19.3099
389 33 2 0.0 22.0704 21.5097 20.5765
390 33 2 0.0 23.2688 21.6751 21.599
391 33 2 0.0 23.0857 20.8427 22.8598
392 33 2 0.0 24.3635 20.9819 23.6565
393 33 2 0.0 24.1211 20.2106 24.8995
394 33 2 0.0 25.4163 20.3519 25.7338
395 33 2 0.0 25.3622 19.6165 27.1598
396 33 2 0 26.6842 19.7397 27.9536
397 34 1 0.0 19.9253 31.6833 15.7967
398 34 2 0.0 21.0052 31.8068 17.2941
399 34 2 0.0 20.93 30.7778 18.3849
400 34 2 0.0 22.1638 31.1215 19.3227
401 34 2 0.0 22.1178 30.2091 20.5068
402 34 2 0.0 23.39 30.3183 21.4157
403 34 2 0.0 23.1023 29.647 22.6768
404 34 2 0.0 24.318 29.807 23.5599
405 34 2 0.0 24.1459 28.8457 24.7904
406 34 2 0.0 25.3743 28.9502 25.5835
407 34 2 0.0 25.3478 28.0263 26.8792
408 34 2 0 26.5081 28.4008 27.7903
409 35 1 0.0 19.9929 40.5679 15.7967
410 35 2 0.0 21.2974 40.9988 16.9756
411 35 2 0.0 21.4208 39.8543 17.9723
412 35 2 0.0 22.3665 40.2677 19.2225
413 35 2 0.0 22.7033 38.9745 20.0351
414 35 2 0.0 23.487 39.3597 21.3627
415 35 2 0.0 23.7414 38.0697 22.3386
416 35 2 0.0 24.5868 38.4502 23.5835
417 35 2 0.0 24.7221 37.2465 24.4845
418 35 2 0.0 25.6683 37.7025 25.5899
419 35 2 0.0 25.584 36.7349 26.7574
420 35 2 0 26.7033 37.0337 27.8459
421 36 1 0.0 20.122 49.0288 15.7967
422 36 2 0.0 21.0979 49.4594 17.3033
423 36 2 0.0 21.4687 48.2117 18.0651
424 36 2 0.0 22.1626 48.5634 19.4109
425 36 2 0.0 22.8808 47.3125 20.0076
426 36 2 0.0 23.5869 47.7968 21.3334
427 36 2 0.0 23.8122 46.5529 22.1588
428 36 2 0.0 24.6053 47.0027 23.3715
429 36 2 0.0 24.763 45.6838 24.2722
430 36 2 0.0 25.5172 46.1497 25.4574
431 36 2 0.0 25.5522 45.0514 26.4895
432 36 2 0 26.5176 45.6877 27.6091
433 37 1 0.0 24.7944 5.76913 15.7967
434 37 2 0.0 25.6701 5.95895 17.3976
435 37 2 0.0 26.0577 4.71774 18.1446
436 37 2 0.0 26.6832 5.28401 19.4809
437 37 2 0.0 27.2466 4.17959 20.3366
438 37 2 0.0 27.9508 4.79186 21.641
439 37 2 0.0 28.3797 3.6022 22.4376
440 37 2 0.0 29.0111 4.11566 23.6974
441 37 2 0.0 29.3924 2.80017 24.4625
442 37 2 0.0 30.4551 3.10359 25.5546
443 37 2 0.0 30.629 1.89063 26.3577
444 37 2 0 31.5609 2.44293 27.3537
445 38 1 0.0 25.3348 14.0276 15.7967
446 38 2 0.0 26.0805 14.5577 17.405
447 38 2 0.0 26.6401 13.5638 18.3537
448 38 2 0.0 27.1745 14.1813 19.653
449 38 2 0.0 27.5322 13.0866 20.6586
450 38 2 0.0 28.5572 13.54 21.5229
451 38 2 0.0 28.7258 12.4512 22.4958
452 38 2 0.0 29.7952 12.7445 23.4556
453 38 2 0.0 29.7624 11.7733 24.6498
454 38 2 0.0 31.0644 11.8558 25.4163
455 38 2 0.0 30.6955 11.0038 26.6564
456 38 2 0 31.7875 11.0955 27.6746
457 39 1 0.0 25.0932 23.0059 15.7967
458 39 2 0.0 26.3484 23.0912 17.0566
459 39 2 0.0 25.9022 22.4934 18.3505
460 39 2 0.0 27.1971 22.3698 19.1688
461 39 2 0.0 26.9708 21.733 20.5502
462 39 2 0.0 28.3229 21.7364 21.331
463 39 2 0.0 28.0507 20.9421 22.6479
464 39 2 0.0 29.2145 20.9277 23.5217
465 39 2 0.0 29.1311 19.8953 24.7186
466 39 2 0.0 30.3928 20.1334 25.5981
467 39 2 0.0 30.3884 19.2521 26.9117
468 39 2 0 31.5615 19.7353 27.8926
469 40 1 0.0 25.1884 31.5898 15.7967
470 40 2 0.0 25.8745 31.7694 17.458
471 40 2 0.0 26.3458 30.4882 18.2987
472 40 2 0.0 27.0377 31.0547 19.5584
473 40 2 0.0 27.3894 29.819 20.4613
474 40 2 0.0 28.3202 30.2739 21.6615
475 40 2 0.0 28.3274 29.1446 22.6761
476 40 2 0.0 29.3143 29.5849 23.6863
477 40 2 0.0 29.4105 28.5441 24.7889
478 40 2 0.0 30.3384 29.1037 25.887
479 40 2 0.0 30.5706 27.9969 26.9007
480 40 2 0 31.5929 28.3993 27.7667
481 41 1 0.0 25.3169 40.7452 15.7967
482 41 2 0.0 26.6243 40.6959 17.0366
483 41 2 0.0 26.3866 39.6859 18.2469
484 41 2 0.0 27.6438 39.5078 19.0599
485 41 2 0.0 27.4209 38.5126 20.1595
486 41 2 0.0 28.5316 38.8089 21.2277
487 41 2 0.0 28.3493 37.8389 22.4015
488 41 2 0.0 29.251 38.2733 23.58
489 41 2 0.0 29.3501 37.1049 24.556
490 41 2 0.0 30.2037 37.5815 25.7503
491 41 2 0.0 30.4916 36.462 26.8155
492 41 2 0 31.4474 37.0404 27.8217
493 42 1 0.0 25.1568 49.123 15.7967
494 42 2 0.0 26.6022 49.039 16.8433
495 42 2 0.0 26.4346 48.6802 18.3641
496 42 2 0.0 27.6371 48.8315 19.1492
497 42 2 0.0 27.4996 47.9652 20.4544
498 42 2 0.0 28.7646 48.1002 21.4016
499 42 2 0.0 28.6266 47.1994 22.6509
500 42 2 0.0 29.7649 47.3528 23.6832
501 42 2 0.0 29.6213 46.3485 24.8535
502 42 2 0.0 30.7478 46.5061 25.8525
503 42 2 0.0 30.4119 45.5249 27.1433
504 42 2 0 31.6048 45.7129 28.1218
505 43 1 0.0 29.4469 5.73092 15.7967
506 43 2 0.0 30.7709 6.20943 16.9784
507 43 2 0.0 30.9635 5.16117 18.1306
508 43 2 0.0 31.999 5.50051 19.2055
509 43 2 0.0 31.7621 4.47177 20.3896
510 43 2 0.0 32.8522 4.66828 21.4284
511 43 2 0.0 32.7837 3.61501 22.5424
512 43 2 0.0 33.8939 3.97031 23.4891
513 43 2 0.0 34.2692 2.70318 24.2506
514 43 2 0.0 35.3641 3.0096 25.2042
515 43 2 0.0 35.4015 1.94652 26.2773
516 43 2 0 36.4034 2.43645 27.359
517 44 1 0.0 29.883 14.367 15.7967
518 44 2 0.0 30.5384 14.9208 17.4834
519 44 2 0.0 31.5037 13.8623 17.9837
520 44 2 0.0 31.9171 14.2324 19.3821
521 44 2 0.0 32.5315 13.0616 20.054
522 44 2 0.0 33.3222 13.6883 21.2444
523 44 2 0.0 33.518 12.6216 22.3905
524 44 2 0.0 34.5308 12.921 23.5819
525 44 2 0.0 34.4804 11.727 24.624
526 44 2 0.0 35.6108 11.9741 25.5832
527 44 2 0.0 35.4102 11.1666 26.8852
528 44 2 0 36.6744 11.0873 27.8131
529 45 1 0.0 30.0964 22.8069 15.7967
530 45 2 0.0 31.3866 22.9774 16.9514
531 45 2 0.0 31.5079 21.9646 18.0233
532 45 2 0.0 32.7691 22.3116 18.7842
533 45 2 0.0 32.6713 21.4598 20.1205
534 45 2 0.0 33.6695 21.9299 21.1129
535 45 2 0.0 33.593 21.2189 22.4912
536 45 2 0.0 34.8281 21.4185 23.4274
537 45 2 0.0 34.69 20.4933 24.7042
538 45 2 0.0 35.8696 20.5429 25.6806
539 45 2 0.0 35.7166 19.5643 26.7345
540 45 2 0 36.8625 19.7312 27.7555
541 46 1 0.0 30.1265 31.4662 15.7967
542 46 2 0.0 31.3046 31.5996 17.256
543 46 2 0.0 30.6918 31.0994 18.5736
544 46 2 0.0 31.9348 31.2388 19.4556
545 46 2 0.0 31.9195 30.3696 20.5084
546 46 2 0.0 32.9885 30.8166 21.486
547 46 2 0.0 32.9688 29.8552 22.723
548 46 2 0.0 34.2752 29.9191 23.5613
549 46 2 0.0 34.2582 28.9534 24.8312
550 46 2 0.0 35.5166 29.0613 25.534
551 46 2 0.0 35.3628 28.1189 26.8906
552 46 2 0 36.544 28.3977 27.8342
553 47 1 0.0 30.0006 40.3448 15.7967
554 47 2 0.0 31.5017 40.3419 16.9282
555 47 2 0.0 31.2544 39.8211 18.3774
556 47 2 0.0 32.5273 39.9162 19.2492
557 47 2 0.0 32.2266 38.9461 20.473
558 47 2 0.0 33.4877 39.0077 21.4173
559 47 2 0.0 33.2647 38.0743 22.7728
560 47 2 0.0 34.4001 38.2519 23.7157
561 47 2 0.0 34.3331 37.2666 24.8952
562 47 2 0.0 35.5492 37.6044 25.9083
563 47 2 0.0 35.5392 36.5905 27.0088
564 47 2 0 36.5455 37.0537 28.0733
565 48 1 0.0 30.1667 49.1078 15.7967
566 48 2 0.0 31.2708 49.2991 17.166
567 48 2 0.0 31.4514 48.1039 18.0836
568 48 2 0.0 32.6978 48.3809 19.016
569 48 2 0.0 32.8953 47.0801 19.8404
570 48 2 0.0 33.9011 47.502 20.9785
571 48 2 0.0 33.6163 46.6701 22.2522
572 48 2 0.0 34.539 47.166 23.3303
573 48 2 0.0 34.3637 46.2247 24.5884
574 48 2 0.0 35.5621 46.4624 25.7074
575 48 2 0.0 35.3929 45.4672 26.8284
576 48 2 0 36.6553 45.6954 27.7397
577 49 1 0.0 34.7177 5.61786 15.7967
578 49 2 0.0 35.8981 6.02845 17.1429
579 49 2 0.0 35.622 5.30442 18.3981
580 49 2 0.0 36.8021 5.52651 19.4008
581 49 2 0.0 36.7887 4.64696 20.6031
582 49 2 0.0 38.1119 4.91196 21.3573
583 49 2 0.0 38.1685 4.15143 22.6152
584 49 2 0.0 39.5232 4.27983 23.3833
585 49 2 0.0 39.4212 3.43049 24.6349
586 49 2 0.0 40.7333 3.47883 25.5223
587 49 2 0.0 40.6223 2.52554 26.6853
588 49 2 0 41.7421 2.43201 27.6556
589 50 1 0.0 34.8237 14.5237 15.7967
590 50 2 0.0 36.0738 14.91 17.1101
591 50 2 0.0 36.4205 13.5735 17.8682
592 50 2 0.0 37.4049 13.8976 19.0412
593 50 2 0.0 37.2551 12.7849 20.1742
594 50 2 0.0 38.1096 13.0386 21.4727
595 50 2 0.0 37.9841 11.9906 22.5041
596 50 2 0.0 39.0621 12.3496 23.5774
597 50 2 0.0 39.2018 11.2259 24.5665
598 50 2 0.0 40.3112 11.5491 25.619
599 50 2 0.0 40.292 10.4091 26.701
600 50 2 0 41.2147 11.0545 27.7674
601 51 1 0.0 35.1135 23.0988 15.7967
602 51 2 0.0 36.2296 23.4215 17.1783
603 51 2 0.0 36.2444 22.2728 18.1917
604 51 2 0.0 37.2115 22.6412 19.2862
605 51 2 0.0 37.3908 21.4579 20.1893
606 51 2 0.0 38.4666 21.8796 21.1921
607 51 2 0.0 38.3468 20.8667 22.3702
608 51 2 0.0 39.2998 21.4183 23.4637
609 51 2 0.0 39.2479 20.4491 24.6117
610 51 2 0.0 40.468 20.4939 25.496
611 51 2 0.0 40.4313 19.324 26.6065
612 51 2 0 41.5197 19.7381 27.502
613 52 1 0.0 34.9373 31.6896 15.7967
614 52 2 0.0 35.4707 31.9848 17.5757
615 52 2 0.0 35.8785 30.7412 18.3552
616 52 2 0.0 36.5708 31.2607 19.5853
617 52 2 0.0 37.1892 30.0955 20.349
618 52 2 0.0 38.1454 30.7059 21.3734
619 52 2 0.0 38.2551 29.7045 22.539
620 52 2 0.0 39.0924 30.0945 23.7196
621 52 2 0.0 39.1097 28.9576 24.8232
622 52 2 0.0 40.2605 29.302 25.7199
623 52 2 0.0 40.3686 28.1889 26.7783
624 52 2 0 41.6576 28.4007 27.5188
625 53 1 0.0 35.2998 40.289 15.7967
626 53 2 0.0 36.4724 40.2379 17.1098
627 53 2 0.0 36.3566 39.223 18.2194
628 53 2 0.0 37.5487 39.3805 19.1359
629 53 2 0.0 37.3118 38.5867 20.4386
630 53 2 0.0 38.5723 38.8518 21.3517
631 53 2 0.0 38.2922 38.08 22.7809
632 53 2 0.0 39.5371 38.2273 23.7897
633 53 2 0.0 39.322 37.4972 25.1327
634 53 2 0.0 40.4552 37.8848 26.1025
635 53 2 0.0 40.4552 36.8772 27.2211
636 53 2 0 41.7459 37.0303 28.0861
637 54 1 0.0 35.1221 49.0638 15.7967
638 54 2 0.0 36.6997 49.3524 16.8688
639 54 2 0.0 36.3832 48.798 18.2045
640 54 2 0.0 37.5438 49.0075 19.1982
641 54 2 0.0 37.4263 48.0416 20.3626
642 54 2 0.0 38.5654 48.1502 21.4169
643 54 2 0.0 38.3671 47.1527 22.5418
644 54 2 0.0 39.4024 47.4352 23.5424
645 54 2 0.0 39.2819 46.5511 24.7994
646 54 2 0.0 40.4689 46.5969 25.7092
647 54 2 0.0 40.259 45.7419 26.8836
648 54 2 0 41.6174 45.7032 27.5641
649 55 1 0.0 39.8568 6.11837 15.7967
650 55 2 0.0 41.2138 6.21094 17.0389
651 55 2 0.0 41.1412 5.14442 18.1241
652 55 2 0.0 42.2359 5.43514 19.0292
653 55 2 0.0 42.2341 4.64299 20.3536
654 55 2 0.0 43.4804 4.86001 21.2696
655 55 2 0.0 43.2844 4.11257 22.629
656 55 2 0.0 44.5804 4.16188 23.426
657 55 2 0.0 44.2583 3.58875 24.7132
658 55 2 0.0 45.6293 3.36537 25.5021
659 55 2 0.0 45.3368 2.6969 26.8583
660 55 2 0 46.64 2.44396 27.5882
661 56 1 0.0 40.1105 14.3424 15.7967
662 56 2 0.0 41.2849 14.4814 17.0923
663 56 2 0.0 40.9431 13.9121 18.4995
664 56 2 0.0 42.1311 14.1808 19.5187
665 56 2 0.0 42.0912 13.0277 20.5288
666 56 2 0.0 43.239 13.2091 21.5483
667 56 2 0.0 43.289 12.2251 22.7732
668 56 2 0.0 44.4336 12.6416 23.7557
669 56 2 0.0 44.4724 11.7115 25.0516
670 56 2 0.0 45.7188 11.8286 25.9033
671 56 2 0.0 45.6607 10.8461 27.0838
672 56 2 0 46.7483 11.0957 28.0977
673 57 1 0.0 39.9374 23.3604 15.7967
674 57 2 0.0 41.3596 23.8278 16.7489
675 57 2 0.0 41.4487 22.8229 17.9067
676 57 2 0.0 42.1511 23.3122 19.1235
677 57 2 0.0 42.3068 22.1438 20.2308
678 57 2 0.0 43.3937 22.3647 21.2686
679 57 2 0.0 43.1703 21.478 22.5217
680 57 2 0.0 44.4655 21.4322 23.4015
681 57 2 0.0 44.385 20.2505 24.4815
682 57 2 0.0 45.313 20.6534 25.5411
683 57 2 0.0 45.3201 19.5718 26.5466
684 57 2 0 46.5581 19.7474 27.4325
685 58 1 0.0 40.1396 31.9263 15.7967
686 58 2 0.0 41.2524 32.2575 17.277
687 58 2 0.0 40.9152 31.4922 18.5636
688 58 2 0.0 42.0247 31.8678 19.4312
689 58 2 0.0 42.0016 30.8086 20.485
690 58 2 0.0 43.02 31.062 21.5982
691 58 2 0.0 42.8478 29.7965 22.5542
692 58 2 0.0 44.0981 29.9668 23.4789
693 58 2 0.0 44.1392 28.8836 24.5111
694 58 2 0.0 45.2985 29.0848 25.5211
695 58 2 0.0 45.5471 27.8844 26.4962
696 58 2 0 46.5755 28.3953 27.5014
697 59 1 0.0 40.2254 39.9447 15.7967
698 59 2 0.0 41.1637 40.5477 17.2427
699 59 2 0.0 41.3997 39.3946 18.1796
700 59 2 0.0 42.2948 39.9723 19.3507
701 59 2 0.0 42.3486 38.7815 20.3776
702 59 2 0.0 43.3059 39.1844 21.4856
703 59 2 0.0 43.403 37.9632 22.3201
704 59 2 0.0 44.41 38.2797 23.3235
705 59 2 0.0 44.5146 37.2656 24.6073
706 59 2 0.0 45.6746 37.8373 25.5965
707 59 2 0.0 45.576 37.067 26.9549
708 59 2 0 46.7791 37.0478 27.9506
709 60 1 0.0 40.2687 48.7023 15.7967
710 60 2 0.0 40.9619 49.4209 17.4037
711 60 2 0.0 41.4959 48.3398 18.2685
712 60 2 0.0 42.1336 48.9405 19.481
713 60 2 0.0 42.5389 47.7909 20.2856
714 60 2 0.0 43.2695 48.0657 21.5537
715 60 2 0.0 43.5134 46.7394 22.2276
716 60 2 0.0 44.0334 47.2417 23.5788
717 60 2 0.0 44.4445 45.923 24.3459
718 60 2 0.0 45.3789 46.3081 25.4772
719 60 2 0.0 45.6464 45.174 26.3628
720 60 2 0 46.637 45.6982 27.4879
721 61 1 0.0 47.6427 9.69005 15.7967
722 61 2 0.0 48.4159 10.3876 17.2462
723 61 2 0.0 48.1813 9.50707 18.4643
724 61 2 0.0 49.4446 9.60431 19.4092
725 61 2 0.0 49.3567 8.63908 20.684
726 61 2 0.0 0.68449 8.89943 21.5291
727 61 2 0.0 0.57417 8.01522 22.7511
728 61 2 0.0 1.91327 8.25692 23.6028
729 61 2 0.0 1.82923 7.36067 24.9578
730 61 2 0.0 3.15373 7.52468 25.7028
731 61 2 0.0 3.05811 6.71509 26.9572
732 61 2 0 4.33187 6.7623 27.7624
733 62 1 0.0 47.4942 18.8673 15.7967
734 62 2 0.0 48.3646 19.3823 17.3219
735 62 2 0.0 48.578 18.1382 18.1516
736 62 2 0.0 49.3524 18.638 19.3649
737 62 2 0.0 49.5695 17.3905 20.2642
738 62 2 0.0 0.46003 17.9311 21.3516
739 62 2 0.0 0.89486 16.7547 22.3795
740 62 2 0.0 1.70563 17.2331 23.5667
741 62 2 0.0 1.74086 16.1034 24.536
742 62 2 0.0 2.62666 16.4357 25.7177
743 62 2 0.0 3.00647 15.0601 26.4882
744 62 2 0 4.14387 15.4262 27.3419
745 63 1 0.0 46.8537 27.4618 15.7967
746 63 2 0.0 48.2721 27.6641 16.9517
747 63 2 0.0 48.4305 26.5526 17.9564
748 63 2 0.0 49.6606 26.7507 18.7931
749 63 2 0.0 49.5621 25.9812 20.1509
750 63 2 0.0 0.85367 26.3647 20.9023
751 63 2 0.0 0.63877 25.5157 22.1607
752 63 2 0.0 1.85895 25.6484 23.0915
753 63 2 0.0 1.69592 24.7392 24.3508
754 63 2 0.0 2.9828 24.9408 25.2497
755 63 2 0.0 2.71421 24.1421 26.5234
756 63 2 0 4.03387 24.0849 27.2736
757 64 1 0.0 47.2549 36.2116 15.7967
758 64 2 0.0 48.2094 36.6667 17.1164
759 64 2 0.0 48.3181 35.5745 18.1287
760 64 2 0.0 49.4114 35.7649 19.0559
761 64 2 0.0 49.5792 34.5749 20.1078
762 64 2 0.0 0.52342 35.1062 21.2121
763 64 2 0.0 0.62621 34.0738 22.2401
764 64 2 0.0 1.57283 34.601 23.2801
765 64 2 0.0 1.78661 33.4221 24.3242
766 64 2 0.0 3.05337 33.6221 25.0641
767 64 2 0.0 2.94612 32.8524 26.4483
768 64 2 0 4.23941 32.7157 27.1154
769 65 1 0.0 47.5033 44.31 15.7967
770 65 2 0.0 48.449 44.7653 17.2552
771 65 2 0.0 49.0592 43.6635 18.1322
772 65 2 0.0 49.5805 44.4103 19.3804
773 65 2 0.0 0.3525 43.3406 20.1853
774 65 2 0.0 1.15815 43.8096 21.4209
775 65 2 0.0 1.46847 42.6627 22.3723
776 65 2 0.0 2.34939 43.0101 23.4971
777 65 2 0.0 2.43154 41.8339 24.5046
778 65 2 0.0 3.32085 42.22 25.7644
779 65 2 0.0 3.0562 41.2128 26.8118
780 65 2 0 4.20348 41.3642 27.8983
781 66 1 0.0 47.4313 1.67798 15.7967
782 66 2 0.0 48.487 2.09656 17.2427
783 66 2 0.0 48.7471 0.86962 18.1308
784 66 2 0.0 49.5276 1.3019 19.3614
785 66 2 0.0 49.7373 51.883 20.1703
786 66 2 0.0 0.44671 0.45555 21.4393
787 66 2 0.0 0.66265 51.1256 22.3074
788 66 2 0.0 1.83752 51.3919 23.2745
789 66 2 0.0 1.95418 50.3139 24.2279
790 66 2 0.0 2.92611 50.8452 25.229
791 66 2 0.0 3.17395 49.7517 26.1719
792 66 2 0 4.31134 50.0191 27.203
793 67 1 0.0 2.86625 10.1338 15.7967
794 67 2 0.0 3.39897 10.6092 17.3516
795 67 2 0.0 3.6676 9.57156 18.2989
796 67 2 0.0 4.7712 10.1378 19.2779
797 67 2 0.0 4.79798 9.15707 20.4932
798 67 2 0.0 5.99639 9.46459 21.4367
799 67 2 0.0 5.87983 8.5102 22.6724
800 67 2 0.0 7.08104 8.5464 23.6094
801 67 2 0.0 6.75601 7.74028 24.8611
802 67 2 0.0 8.01002 7.6449 25.7702
803 67 2 0.0 7.77327 6.76906 26.9402
804 67 2 0 9.12431 6.75677 27.7164
805 68 1 0.0 2.35313 18.8441 15.7967
806 68 2 0.0 3.49706 19.592 17.0879
807 68 2 0.0 3.56276 18.52 18.1618
808 68 2 0.0 4.4806 18.8651 19.3701
809 68 2 0.0 4.40797 17.6911 20.4664
810 68 2 0.0 5.27737 17.9292 21.6395
811 68 2 0.0 5.66508 16.6672 22.4069
812 68 2 0.0 6.98771 16.8776 23.2519
813 68 2 0.0 7.14117 15.8363 24.2452
814 68 2 0.0 8.33569 16.103 25.1902
815 68 2 0.0 7.94953 15.4522 26.5195
816 68 2 0 9.17654 15.4112 27.4286
817 69 1 0.0 2.61753 27.4107 15.7967
818 69 2 0.0 3.82981 27.4463 17.1891
819 69 2 0.0 3.69252 26.343 18.242